20
	Energy:     -33.9787653
C         -6.55303        1.58871       -0.26304
C         -2.41656        3.11607        0.99988
H         -5.63807        2.13399       -0.51555
C         -6.25800        0.45658        0.69900
H         -6.96068        1.19972       -1.20185
C         -2.24606        1.91381        0.11715
H         -5.82438        0.83457        1.62998
O         -5.34783       -0.45855        0.10847
H         -7.17637       -0.08557        0.94238
O         -3.07627        1.03747       -0.06483
O         -1.03492        1.85061       -0.46389
H         -4.50241        0.02497       -0.02067
H         -1.05074        1.02163       -0.98689
C         -2.31772        4.40833        0.21308
H         -1.66708        3.07828        1.79708
H         -3.40181        3.04994        1.47499
H         -1.32065        4.53241       -0.22194
H         -2.51332        5.26636        0.86348
H         -3.04327        4.42504       -0.60699
H         -7.27080        2.29084        0.17020
